<?xml version="1.0"?>
<VTKFile type="UnstructuredGrid"  version="0.1"  >
<UnstructuredGrid>
<Piece  NumberOfPoints="3350" NumberOfCells="9927">
<Points>
<DataArray  type="Float64"  NumberOfComponents="3"  format="ascii">0.05 -0.01 0  0.065 -0.02 0  0.09 -0.015 0  0.1 -0.045 0  0.09 -0.075 0  0.1 -0.1 0  0.175 -0.169 0  0.1775 -0.159 0  0.13 -0.08500000000000001 0  0.135 -0.07000000000000001 0  0.175 -0.07000000000000001 0  0.24 -0.05 0  0.3 -0.065 0  0.295 -0.05 0  0.31 -0.05 0  0.305 -0.04 0  0.32 -0.03 0  0.265 -0.025 0  0.275 -0.01 0  0.29 -0.0025 0  0.29 0.0025 0  0.275 0.01 0  0.265 0.025 0  0.32 0.03 0  0.305 0.04 0  0.31 0.05 0  0.295 0.05 0  0.3 0.065 0  0.24 0.05 0  0.175 0.07000000000000001 0  0.135 0.07000000000000001 0  0.13 0.08500000000000001 0  0.1775 0.159 0  0.175 0.169 0  0.1 0.1 0  0.09 0.075 0  0.1 0.045 0  0.09 0.015 0  0.065 0.02 0  0.05 0.01 0  -0.5 -0.5 0  1.5 -0.5 0  1.5 0.5 0  -0.5 0.5 0  0.05749999999997685 -0.01499999999998456 0  0.0733333333333038 -0.01833333333333924 0  0.08166666666665306 -0.01666666666666939 0  0.09249999999999307 -0.02249999999997922 0  0.09499999999998533 -0.02999999999995599 0  0.09749999999999277 -0.0374999999999783 0  0.09750000000000637 -0.05249999999998088 0  0.09500000000001398 -0.05999999999995809 0  0.09250000000000556 -0.0674999999999833 0  0.09333333333332305 -0.08333333333330764 0  0.0966666666666539 -0.09166666666663476 0  0.1068181818181811 -0.1062727272727267 0  0.1136363636363471 -0.1125454545454393 0  0.1204545454545079 -0.1188181818181473 0  0.1272727272726741 -0.1250909090908602 0  0.1340909090908349 -0.1313636363635681 0  0.1409090909090185 -0.1376363636362971 0  0.1477272727272076 -0.143909090909031 0  0.1545454545454107 -0.1501818181817779 0  0.1613636363635985 -0.1564545454545107 0  0.1681818181818021 -0.1627272727272579 0  0.1762499999999946 -0.1640000000000217 0  0.1722222222222269 -0.150777777777785 0  0.1669444444444675 -0.1425555555555914 0  0.1616666666667098 -0.1343333333334006 0  0.1563888888889512 -0.1261111111112082 0  0.1511111111111738 -0.1178888888889866 0  0.1458333333333825 -0.1096666666667433 0  0.1405555555555878 -0.1014444444444947 0  0.1352777777777893 -0.09322222222224023 0  0.1324999999999932 -0.07750000000002034 0  0.1449999999999729 -0.07000000000000001 0  0.1549999999999621 -0.07000000000000001 0  0.1649999999999729 -0.07000000000000001 0  0.1842857142856998 -0.06714285714286158 0  0.1935714285713886 -0.06428571428572659 0  0.2028571428570732 -0.06142857142859286 0  0.2121428571427972 -0.05857142857144703 0  0.2214285714285319 -0.05571428571429789 0  0.2307142857142483 -0.05285714285715437 0  0.2485714285714092 -0.05214285714285231 0  0.2571428571428173 -0.05428571428570433 0  0.265714285714209 -0.05642857142855224 0  0.2742857142856371 -0.05857142857140927 0  0.2828571428570875 -0.06071428571427189 0  0.2914285714285391 -0.06285714285713477 0  0.2975000000000068 -0.05750000000002035 0  0.3024999999999892 -0.05 0  0.3075000000000059 -0.04500000000001193 0  0.3124999999999872 -0.03500000000000855 0  0.3108333333333909 -0.0291666666666719 0  0.3016666666667638 -0.02833333333334216 0  0.2925000000000757 -0.02750000000000688 0  0.2833333333333409 -0.02666666666666735 0  0.2741666666666526 -0.02583333333333205 0  0.2699999999999848 -0.01750000000002292 0  0.2824999999999612 -0.006250000000019385 0  0.2825000000000041 0.006249999999997966 0  0.2700000000000162 0.01749999999997568 0  0.2741666666666056 0.02583333333332778 0  0.2833333333332506 0.02666666666665914 0  0.2924999999999566 0.02749999999999605 0  0.3016666666666771 0.02833333333333428 0  0.3108333333333295 0.02916666666666632 0  0.3125000000000115 0.03499999999999229 0  0.3074999999999929 0.04499999999998591 0  0.3025000000000108 0.05 0  0.2974999999999916 0.05749999999997478 0  0.2914285714285825 0.06285714285714561 0  0.2828571428571756 0.06071428571429389 0  0.2742857142857606 0.05857142857144015 0  0.2657142857143296 0.0564285714285824 0  0.2571428571428908 0.05428571428572269 0  0.2485714285714447 0.05214285714286117 0  0.2307142857142999 0.05285714285713849 0  0.2214285714286126 0.05571428571427304 0  0.2121428571429284 0.05857142857140665 0  0.2028571428572042 0.06142857142855255 0  0.1935714285714682 0.06428571428570209 0  0.1842857142857511 0.0671428571428458 0  0.1650000000000271 0.07000000000000001 0  0.1550000000000379 0.07000000000000001 0  0.1450000000000271 0.07000000000000001 0  0.1325000000000076 0.07749999999997723 0  0.1352777777777674 0.09322222222220601 0  0.1405555555555291 0.1014444444444032 0  0.1458333333332881 0.1096666666665962 0  0.1511111111110501 0.1178888888887939 0  0.1563888888888283 0.1261111111110168 0  0.161666666666622 0.1343333333332638 0  0.1669444444444181 0.1425555555555145 0  0.1722222222222115 0.1507777777777611 0  0.1762500000000054 0.1639999999999783 0  0.1681818181818245 0.1627272727272786 0  0.1613636363636783 0.156454545454584 0  0.1545454545455133 0.1501818181818722 0  0.1477272727273431 0.1439090909091557 0  0.1409090909091774 0.1376363636364432 0  0.1340909090909977 0.1313636363637179 0  0.1272727272727915 0.1250909090909682 0  0.1204545454545859 0.118818181818219 0  0.1136363636363888 0.1125454545454777 0  0.1068181818181963 0.1062727272727406 0  0.09666666666667632 0.09166666666669081 0  0.0933333333333408 0.08333333333335202 0  0.09249999999999221 0.06750000000002337 0  0.09499999999998482 0.06000000000004554 0  0.09749999999999262 0.05250000000002215 0  0.09750000000000647 0.03750000000001942 0  0.09500000000001438 0.03000000000004312 0  0.09250000000000709 0.02250000000002126 0  0.08166666666669598 0.0166666666666608 0  0.07333333333334716 0.01833333333333057 0  0.05750000000001893 0.01500000000001262 0  0.05 2.541890309348815e-14 0  -0.4500000000001387 -0.5 0  -0.4000000000002774 -0.5 0  -0.3500000000004161 -0.5 0  -0.3000000000005548 -0.5 0  -0.2500000000006935 -0.5 0  -0.2000000000008322 -0.5 0  -0.1500000000009709 -0.5 0  -0.1000000000011096 -0.5 0  -0.05000000000124821 -0.5 0  -1.387001624664208e-12 -0.5 0  0.04999999999847426 -0.5 0  0.09999999999833564 -0.5 0  0.1499999999981969 -0.5 0  0.1999999999980582 -0.5 0  0.2499999999979194 -0.5 0  0.2999999999977808 -0.5 0  0.3499999999976422 -0.5 0  0.3999999999975036 -0.5 0  0.4499999999973647 -0.5 0  0.4999999999972478 -0.5 0  0.5499999999973648 -0.5 0  0.5999999999975034 -0.5 0  0.649999999997642 -0.5 0  0.6999999999977808 -0.5 0  0.7499999999979194 -0.5 0  0.7999999999980583 -0.5 0  0.8499999999981969 -0.5 0  0.8999999999983355 -0.5 0  0.9499999999984743 -0.5 0  0.9999999999986129 -0.5 0  1.049999999998751 -0.5 0  1.09999999999889 -0.5 0  1.149999999999029 -0.5 0  1.199999999999168 -0.5 0  1.249999999999307 -0.5 0  1.299999999999445 -0.5 0  1.349999999999584 -0.5 0  1.399999999999723 -0.5 0  1.449999999999861 -0.5 0  1.5 -0.4500000000001387 0  1.5 -0.4000000000002774 0  1.5 -0.3500000000004161 0  1.5 -0.3000000000005548 0  1.5 -0.2500000000006935 0  1.5 -0.2000000000008322 0  1.5 -0.1500000000009709 0  1.5 -0.1000000000011096 0  1.5 -0.05000000000124821 0  1.5 -1.376121439022882e-12 0  1.5 0.04999999999875171 0  1.5 0.09999999999889042 0  1.5 0.1499999999990291 0  1.5 0.1999999999991677 0  1.5 0.2499999999993064 0  1.5 0.2999999999994452 0  1.5 0.349999999999584 0  1.5 0.3999999999997227 0  1.5 0.4499999999998613 0  1.449999999999861 0.5 0  1.399999999999722 0.5 0  1.349999999999583 0.5 0  1.299999999999444 0.5 0  1.249999999999349 0.5 0  1.199999999999722 0.5 0  1.150000000000138 0.5 0  1.100000000000554 0.5 0  1.050000000000971 0.5 0  1.000000000001365 0.5 0  0.9500000000015254 0.5 0  0.9000000000016641 0.5 0  0.8500000000018028 0.5 0  0.8000000000019415 0.5 0  0.7500000000020802 0.5 0  0.700000000002219 0.5 0  0.6500000000023576 0.5 0  0.6000000000024964 0.5 0  0.5500000000026352 0.5 0  0.5000000000027521 0.5 0  0.4500000000026352 0.5 0  0.4000000000024966 0.5 0  0.3500000000023578 0.5 0  0.3000000000022192 0.5 0  0.2500000000020806 0.5 0  0.2000000000019417 0.5 0  0.1500000000018029 0.5 0  0.1000000000016645 0.5 0  0.05000000000152571 0.5 0  1.386890602361746e-12 0.5 0  -0.04999999999875149 0.5 0  -0.09999999999889031 0.5 0  -0.1499999999990291 0.5 0  -0.199999999999168 0.5 0  -0.2499999999993066 0.5 0  -0.2999999999994452 0.5 0  -0.349999999999584 0.5 0  -0.3999999999997226 0.5 0  -0.4499999999998612 0.5 0  -0.5 0.4500000000001387 0  -0.5 0.4000000000002774 0  -0.5 0.3500000000004161 0  -0.5 0.3000000000005548 0  -0.5 0.2500000000006935 0  -0.5 0.2000000000008322 0  -0.5 0.1500000000009709 0  -0.5 0.1000000000011096 0  -0.5 0.05000000000124821 0  -0.5 1.376121439022882e-12 0  -0.5 -0.04999999999875171 0  -0.5 -0.09999999999889042 0  -0.5 -0.1499999999990291 0  -0.5 -0.1999999999991677 0  -0.5 -0.2499999999993064 0  -0.5 -0.2999999999994452 0  -0.5 -0.349999999999584 0  -0.5 -0.3999999999997227 0  -0.5 -0.4499999999998613 0  0.2488980421929171 -0.03170606701368209 0  0.2192493077803083 0.01465859118309877 0  0.1833458300290991 -0.04623922477380662 0  0.1030776906207205 0.07601171500242308 0  0.1604189796197616 -0.001086914128368642 0  0.1100455153216009 0.05655928223062754 0  0.1912520445691455 -0.05367964960887161 0  0.198943133004947 -0.04627783917218989 0  0.1827527938171417 0.04658962387559749 0  0.2799489795918311 -0.04294217687075044 0  0.1029894687144324 -0.01418702842299348 0  0.1875880709035287 -0.0263148010526149 0  0.1392928989451925 -0.01064123305784097 0  0.1109264579022859 -0.08838025559611906 0  0.1748379924162219 0.005420877645727574 0  0.1371993959674087 0.03143170519881359 0  0.115507696433772 -0.02189694876526922 0  0.1130790655149806 0.07021731987605742 0  0.1208250763427018 -0.0002888093944686371 0  0.1740342559708229 -0.01135703988798478 0  0.2464316906396992 0.03325918173187122 0  0.2040954468922634 0.01517859950547572 0  0.141124063183142 0.04865813106251396 0  0.1461490027154797 -0.0002681607339256578 0  0.141018905361348 0.05598208667815874 0  0.2731796055794988 -0.03569848469141948 0  0.1583084280682385 0.018005138612496
[...]
<CellData  Scalars="f">
<DataArray  type="Float64"  Name="f"  format="ascii">15 15 18446744073709551615 18446744073709551615 18446744073709551615 18446744073709551615 15 15 18446744073709551615 18446744073709551615 18446744073709551615 15 18446744073709551615 18446744073709551615 18446744073709551615 18446744073709551615 18446744073709551615 18446744073709551615 18446744073709551615 18446744073709551615 18446744073709551615 18446744073709551615 18446744073709551615 18446744073709551615 18446744073709551615 18446744073709551615 18446744073709551615 18446744073709551615 18446744073709551615 18446744073709551615 18446744073709551615 18446744073709551615 18446744073709551615 18446744073709551615 18446744073709551615 18446744073709551615 18446744073709551615 18446744073709551615 18446744073709551615 18446744073709551615 18446744073709551615 18446744073709551615 18446744073709551615 18446744073709551615 18446744073709551615 18446744073709551615 18446744073709551615 18446744073709551615 18446744073709551615 18446744073709551615 18446744073709551615 18446744073709551615 18446744073709551615 18446744073709551615 18446744073709551615 18446744073709551615 18446744073709551615 18446744073709551615 18446744073709551615 18446744073709551615 18446744073709551615 18446744073709551615 18446744073709551615 18446744073709551615 18446744073709551615 18446744073709551615 18446744073709551615 18446744073709551615 18446744073709551615 18446744073709551615 18446744073709551615 18446744073709551615 18446744073709551615 18446744073709551615 18446744073709551615 18446744073709551615 18446744073709551615 18446744073709551615 18446744073709551615 18446744073709551615 18446744073709551615 18446744073709551615 18446744073709551615 18446744073709551615 18446744073709551615 18446744073709551615 18446744073709551615 18446744073709551615 18446744073709551615 18446744073709551615 18446744073709551615 18446744073709551615 18446744073709551615 18446744073709551615 18446744073709551615 18446744073709551615 18446744073709551615 18446744073709551615 18446744073709551615 18446744073709551615 18446744073709551615 18446744073709551615 18446744073709551615 18446744073709551615 18446744073709551615 18446744073709551615 18446744073709551615 18446744073709551615 18446744073709551615 18446744073709551615 18446744073709551615 18446744073709551615 18446744073709551615 15 18446744073709551615 18446744073709551615 18446744073709551615 18446744073709551615 18446744073709551615 15 15 18446744073709551615 18446744073709551615 18446744073709551615 18446744073709551615 15 18446744073709551615 18446744073709551615 18446744073709551615 18446744073709551615 15 18446744073709551615 18446744073709551615 18446744073709551615 18446744073709551615 18446744073709551615 18446744073709551615 18446744073709551615 18446744073709551615 18446744073709551615 18446744073709551615 18446744073709551615 18446744073709551615 18446744073709551615 18446744073709551615 18446744073709551615 18446744073709551615 18446744073709551615 18446744073709551615 18446744073709551615 18446744073709551615 18446744073709551615 18446744073709551615 18446744073709551615 18446744073709551615 18446744073709551615 18446744073709551615 18446744073709551615 18446744073709551615 18446744073709551615 18446744073709551615 18446744073709551615 18446744073709551615 18446744073709551615 18446744073709551615 18446744073709551615 18446744073709551615 18446744073709551615 18446744073709551615 18446744073709551615 18446744073709551615 18446744073709551615 18446744073709551615 18446744073709551615 18446744073709551615 18446744073709551615 18446744073709551615 18446744073709551615 18446744073709551615 18446744073709551615 18446744073709551615 18446744073709551615 18446744073709551615 18446744073709551615 18446744073709551615 18446744073709551615 18446744073709551615 18446744073709551615 18446744073709551615 18446744073709551615 18446744073709551615 18446744073709551615 18446744073709551615 18446744073709551615 18446744073709551615 18446744073709551615 18446744073709551615 18446744073709551615 18446744073709551615 18446744073709551615 18446744073709551615 18446744073709551615 18446744073709551615 18446744073709551615 18446744073709551615 18446744073709551615 18446744073709551615 18446744073709551615 18446744073709551615 18446744073709551615 18446744073709551615 18446744073709551615 18446744073709551615 18446744073709551615 18446744073709551615 18446744073709551615 18446744073709551615 18446744073709551615 18446744073709551615 18446744073709551615 18446744073709551615 18446744073709551615 18446744073709551615 18446744073709551615 18446744073709551615 18446744073709551615 18446744073709551615 18446744073709551615 18446744073709551615 18446744073709551615 15 18446744073709551615 18446744073709551615 18446744073709551615 18446744073709551615 18446744073709551615 15 15 18446744073709551615 18446744073709551615 18446744073709551615 15 15 18446744073709551615 18446744073709551615 18446744073709551615 18446744073709551615 11 14 18446744073709551615 11 12 18446744073709551615 12 13 18446744073709551615 13 14 18446744073709551615 18446744073709551615 18446744073709551615 18446744073709551615 18446744073709551615 18446744073709551615 15 18446744073709551615 18446744073709551615 18446744073709551615 18446744073709551615 18446744073709551615 18446744073709551615 18446744073709551615 18446744073709551615 18446744073709551615 18446744073709551615 18446744073709551615 18446744073709551615 18446744073709551615 18446744073709551615 18446744073709551615 18446744073709551615 18446744073709551615 18446744073709551615 18446744073709551615 18446744073709551615 18446744073709551615 18446744073709551615 18446744073709551615 18446744073709551615 18446744073709551615 18446744073709551615 18446744073709551615 18446744073709551615 18446744073709551615 18446744073709551615 18446744073709551615 18446744073709551615 18446744073709551615 18446744073709551615 18446744073709551615 18446744073709551615 18446744073709551615 18446744073709551615 18446744073709551615 18446744073709551615 18446744073709551615 18446744073709551615 18446744073709551615 18446744073709551615 18446744073709551615 18446744073709551615 18446744073709551615 18446744073709551615 18446744073709551615 18446744073709551615 18446744073709551615 18446744073709551615 18446744073709551615 18446744073709551615 18446744073709551615 18446744073709551615 18446744073709551615 18446744073709551615 18446744073709551615 18446744073709551615 18446744073709551615 18446744073709551615 18446744073709551615 18446744073709551615 18446744073709551615 18446744073709551615 18446744073709551615 18446744073709551615 18446744073709551615 18446744073709551615 18446744073709551615 18446744073709551615 18446744073709551615 18446744073709551615 18446744073709551615 18446744073709551615 18446744073709551615 18446744073709551615 18446744073709551615 18446744073709551615 18446744073709551615 18446744073709551615 18446744073709551615 18446744073709551615 18446744073709551615 18446744073709551615 18446744073709551615 18446744073709551615 18446744073709551615 18446744073709551615 18446744073709551615 18446744073709551615 18446744073709551615 18446744073709551615 18446744073709551615 18446744073709551615 18446744073709551615 18446744073709551615 18446744073709551615 18446744073709551615 18446744073709551615 18446744073709551615 18446744073709551615 18446744073709551615 18446744073709551615 18446744073709551615 18446744073709551615 18446744073709551615 18446744073709551615 18446744073709551615 18446744073709551615 18446744073709551615 18446744073709551615 18446744073709551615 18446744073709551615 18446744073709551615 18446744073709551615 18446744073709551615 18446744073709551615 18446744073709551615 18446744073709551615 18446744073709551615 18446744073709551615 18446744073709551615 18446744073709551615 18446744073709551615 18446744073709551615 18446744073709551615 18446744073709551615 18446744073709551615 18446744073709551615 18446744073709551615 18446744073709551615 18446744073709551615 18446744073709551615 18446744073709551615 18446744073709551615 18446744073709551615 18446744073709551615 18446744073709551615 18446744073709551615 18446744073709551615 18446744073709551615 18446744073709551615 18446744073709551615 18446744073709551615 18446744073709551615 18446744073709551615 18446744073709551615 18446744073709551615 18446744073709551615 18446744073709551615 18446744073709551615 18446744073709551615 18446744073709551615 18446744073709551615 18446744073709551615 18446744073709551615 18446744073709551615 18446744073709551615 18446744073709551615 18446744073709551615 18446744073709551615 18446744073709551615 18446744073709551615 18446744073709551615 18446744073709551615 18446744073709551615 18446744073709551615 18446744073709551615 18446744073709551615 18446744073709551615 18446744073709551615 18446744073709551615 18446744073709551615 18446744073709551615 18446744073709551615 18446744073709551615 18446744073709551615 18446744073709551615 18446744073709551615 18446744073709551615 18446744073709551615 18446744073709551615 18446744073709551615 18446744073709551615 18446744073709551615 18446744073709551615 18446744073709551615 18446744073709551615 18446744073709551615 18446744073709551615 18446744073709551615 18446744073709551615 18446744073709551615 18446744073709551615 18446744073709551615 18446744073709551615 18446744073709551615 18446744073709551615 18446744073709551615 18446744073709551615 18446744073709551615 18446744073709551615 18446744073709551615 18446744073709551615 18446744073709551615 18446744073709551615 18446744073709551615 18446744073709551615 18446744073709551615 18446744073709551615 18446744073709551615 18446744073709551615 18446744073709551615 18446744073709551615 18446744073709551615 18446744073709551615 18446744073709551615 18446744073709551615 18446744073709551615 18446744073709551615 18446744073709551615 18446744073709551615 18446744073709551615 18446744073709551615 18446744073709551615 18446744073709551615 18446744073709551615 18446744073709551615 18446744073709551615 18446744073709551615 18446744073709551615 18446744073709551615 18446744073709551615 18446744073709551615 18446744073709551615 18446744073709551615 18446744073709551615 18446744073709551615 18446744073709551615 18446744073709551615 18446744073709551615 18446744073709551615 18446744073709551615 18446744073709551615 18446744073709551615 18446744073709551615 18446744073709551615 18446744073709551615 18446744073709551615 18446744073709551615 18446744073709551615 18446744073709551615 18446744073709551615 18446744073709551615 18446744073709551615 18446744073709551615 18446744073709551615 18446744073709551615 18446744073709551615 18446744073709551615 18446744073709551615 18446744073709551615 18446744073709551615 18446744073709551615 18446744073709551615 18446744073709551615 18446744073709551615 18446744073709551615 18446744073709551615 18446744073709551615 18446744073709551615 18446744073709551615 18446744073709551615 18446744073709551615 18446744073709551615 18446744073709551615 18446744073709551615 18446744073709551615 18446744073709551615 18446744073709551615 18446744073709551615 18446744073709551615 18446744073709551615 18446744073709551615 18446744073709551615 18446744073709551615 18446744073709551615 18446744073709551615 18446744073709551615 18446744073709551615 18446744073709551615 18446744073709551615 18446744073709551615 18446744073709551615 18446744073709551615 18446744073709551615 18446744073709551615 18446744073709551615 18446744073709551615 18446744073709551615 18446744073709551615 18446744073709551615 18446744073709551615 18446744073709551615 18446744073709551615 18446744073709551615 18446744073709551615 18446744073709551615 18446744073709551615 18446744073709551615 18446744073709551615 18446744073709551615 18446744073709551615 18446744073709551615 18446744073709551615 18446744073709551615 18446744073709551615 18446744073709551615 18446744073709551615 18446744073709551615 18446744073709551615 18446744073709551615 18446744073709551615 18446744073709551615 18446744073709551615 18446744073709551615 18446744073709551615 18446744073709551615 18446744073709551615 18446744073709551615 18446744073709551615 18446744073709551615 18446744073709551615 18446744073709551615 18446744073709551615 18446744073709551615 18446744073709551615 18446744073709551615 18446744073709551615 18446744073709551615 18446744073709551615 18446744073709551615 18446744073709551615 18446744073709551615 18446744073709551615 18446744073709551615 18446744073709551615 18446744073709551615 18446744073709551615 18446744073709551615 18446744073709551615 18446744073709551615 18446744073709551615 18446744073709551615 18446744073709551615 18446744073709551615 18446744073709551615 18446744073709551615 18446744073709551615 18446744073709551615 18446744073709551615 18446744073709551615 18446744073709551615 18446744073709551615 18446744073709551615 18446744073709551615 18446744073709551615 18446744073709551615 18446744073709551615 18446744073709551615 18446744073709551615 18446744073709551615 18446744073709551615 18446744073709551615 18446744073709551615 18446744073709551615 18446744073709551615 18446744073709551615 18446744073709551615 18446744073709551615 18446744073709551615 18446744073709551615 18446744073709551615 18446744073709551615 18446744073709551615 18446744073709551615 18446744073709551615 18446744073709551615 18446744073709551615 18446744073709551615 18446744073709551615 18446744073709551615 18446744073709551615 18446744073709551615 18446744073709551615 18446744073709551615 18446744073709551615 18446744073709551615 18446744073709551615 18446744073709551615 18446744073709551615 18446744073709551615 18446744073709551615 18446744073709551615 18446744073709551615 18446744073709551615 18446744073709551615 18446744073709551615 18446744073709551615 18446744073709551615 18446744073709551615 18446744073709551615 18446744073709551615 18446744073709551615 18446744073709551615 18446744073709551615 18446744073709551615 18446744073709551615 18446744073709551615 18446744073709551615 18446744073709551615 18446744073709551615 18446744073709551615 18446744073709551615 18446744073709551615 18446744073709551615 18446744073709551615 18446744073709551615 18446744073709551615 18446744073709551615 18446744073709551615 18446744073709551615 18446744073709551615 18446744073709551615 18446744073709551615 18446744073709551615 18446744073709551615 18446744073709551615 18446744073709551615 18446744073709551615 18446744073709551615 18446744073709551615 18446744073709551615 18446744073709551615 18446744073709551615 18446744073709551615 18446744073709551615 18446744073709551615 18446744073709551615 18446744073709551615 18446744073709551615 18446744073709551615 18446744073709551615 18446744073709551615 18446744073709551615 18446744073709551615 18446744073709551615 18446744073709551615 18446744073709551615 18446744073709551615 18446744073709551615 18446744073709551615 18446744073709551615 18446744073709551615 18446744073709551615 18446744073709551615 18446744073709551615 18446744073709551615 18446744073709551615 18446744073709551615 18446744073709551615 18446744073709551615 18446744073709551615 18446744073709551615 18446744073709551615 18446744073709551615 18446744073709551615 18446744073709551615 18446744073709551615 18446744073709551615 18446744073709551615 18446744073709551615 18446744073709551615 18446744073709551615 18446744073709551615 18446744073709551615 18446744073709551615 18446744073709551615 18446744073709551615 18446744073709551615 18446744073709551615 18446744073709551615 18446744073709551615 18446744073709551615 18446744073709551615 18446744073709551615 18446744073709551615 18446744073709551615 18446744073709551615 18446744073709551615 18446744073709551615 18446744073709551615 18446744073709551615 18446744073709551615 18446744073709551615 18446744073709551615 18446744073709551615 18446744073709551615 18446744073709551615 18446744073709551615 18446744073709551615 18446744073709551615 18446744073709551615 18446744073709551615 18446744073709551615 18446744073709551615 18446744073709551615 18446744073709551615 18446744073709551615 18446744073709551615 18446744073709551615 18446744073709551615 18446744073709551615 18446744073709551615 18446744073709551615 18446744073709551615 18446744073709551615 18446744073709551615 18446744073709551615 18446744073709551615 18446744073709551615 18446744073709551615 15 18446744073709551615 18446744073709551615 18446744073709551615 18446744073709551615 18446744073709551615 18446744073709551615 18446744073709551615 18446744073709551615 18446744073709551615 18446744073709551615 18446744073709551615 18446744073709551615 18446744073709551615 18446744073709551615 18446744073709551615 18446744073709551615 18446744073709551615 18446744073709551615 11 18446744073709551615 18446744073709551615 11 18446744073709551615 18446744073709551615 11 18446744073709551615 18446744073709551615 11 18446744073709551615 18446744073709551615 18446744073709551615 11 18446744073709551615 18446744073709551615 11 18446744073709551615 18446744073709551615 11 18446744073709551615 18446744073709551615 11 18446744073709551615 18446744073709551615 11 18446744073709551615 18446744073709551615 11 18446744073709551615 18446744073709551615 11 18446744073709551615 18446744073709551615 11 18446744073709551615 18446744073709551615 11 18446744073709551615 18446744073709551615 18446744073709551615 11 18446744073709551615 18446744073709551615 11 18446744073709551615 18446744073709551615 11 18446744073709551615 18446744073709551615 18446744073709551615 11 18446744073709551615 18446744073709551615 11 18446744073709551615 18446744073709551615 18446744073709551615 11 18446744073709551615 18446744073709551615 11 18446744073709551615 18446744073709551615 11 18446744073709551615 18446744073709551615 18446744073709551615 11 18446744073709551615 18446744073709551615 11 18446744073709551615 18446744073709551615 11 18446744073709551615 18446744073709551615 11 18446744073709551615 18446744073709551615 11 18446744073709551615 18446744073709551615 11 18446744073709551615 18446744073709551615 11 18446744073709551615 18446744073709551615 11 18446744073709551615 18446744073709551615 11 18446744073709551615 18446744073709551615 11 18446744073709551615 18446744073709551615 11 18446744073709551615 18446744073709551615 11 18446744073709551615 18446744073709551615 11 18446744073709551615 18446744073709551615 11 18446744073709551615 18446744073709551615 11 18446744073709551615 18446744073709551615 11 18446744073709551615 18446744073709551615 18446744073709551615 11 18446744073709551615 18446744073709551615 18446744073709551615 12 18446744073709551615 18446744073709551615 12 18446744073709551615 18446744073709551615 12 18446744073709551615 18446744073709551615 12 18446744073709551615 18446744073709551615 12 18446744073709551615 18446744073709551615 12 18446744073709551615 18446744073709551615 12 18446744073709551615 18446744073709551615 12 18446744073709551615 18446744073709551615 12 18446744073709551615 18446744073709551615 12 18446744073709551615 18446744073709551615 12 18446744073709551615 18446744073709551615 18446744073709551615 12 18446744073709551615 18446744073709551615 12 18446744073709551615 18446744073709551615 12 18446744073709551615 18446744073709551615 12 18446744073709551615 18446744073709551615 12 18446744073709551615 18446744073709551615 12 18446744073709551615 18446744073709551615 18446744073709551615 12 18446744073709551615 18446744073709551615 18446744073709551615 13 18446744073709551615 18446744073709551615 13 18446744073709551615 13 18446744073709551615 18446744073709551615 18446744073709551615 13 18446744073709551615 18446744073709551615 13 18446744073709551615 18446744073709551615 18446744073709551615 13 18446744073709551615 18446744073709551615 13 18446744073709551615 18446744073709551615 13 18446744073709551615 18446744073709551615 13 18446744073709551615 18446744073709551615 18446744073709551615 13 184467440737095